# vtk DataFile Version 3.0
Velocity on structured grid, typical of OLAF or FAST.Farm outputs
ASCII

DATASET STRUCTURED_POINTS
DIMENSIONS   3    2     1
ORIGIN      0.00    0.00       0.00
SPACING     20      10.00      10.00
POINT_DATA            6
SCALARS Intensity float
LOOKUP_TABLE default
      0.00
     30.00
     40.00
      0.00
     20.00
     45.00
VECTORS Velocity float
      0.00       0.00      1.00
     30.00       0.00      0.00
     40.00       0.00      3.00
      0.00      10.00      0.00
     20.00      10.00      0.00
     45.00      10.00      2.00

