# vtk DataFile Version 2.0
Lines polydata, typical of OLAF Sgmt output
ASCII
 
DATASET POLYDATA
POINTS 2 double
 -1.0 -0.25  0.19
 -2.0 -0.24  0.19
  
LINES 1 2 
      2      0      1
  
CELL_DATA 2
SCALARS Gamma double
LOOKUP_TABLE default
  1.00000000E+000
  2.00000000E+000
SCALARS Epsilon double
LOOKUP_TABLE default
  0.5
  0.6
