# vtk DataFile Version 2.0
Domain Extent
ASCII
 
DATASET RECTILINEAR_GRID
DIMENSIONS 2 2 2
X_COORDINATES 2 double
 -15.0
  15.0
Y_COORDINATES 2 double
 -20.0
  60.0
Z_COORDINATES 2 double
  0.0
  30.0
  

POINT_DATA 8
SCALARS Temperature float
LOOKUP_TABLE default
1 0 
0 2
3 4
5 6
